[Molden Format]
[Atoms] (Angs)
 Cu      1   29      0.00000000      0.00000000     -1.30985000
 Cu      2   29      0.00000000      0.00000000      1.30985000
[GTO]
1    0
S    6    1.000000
   7.67943800E+04    1.74816100E-03 
   1.15307000E+04    1.33960200E-02 
   2.62657500E+03    6.61088500E-02 
   7.40490300E+02    2.29826500E-01 
   2.37352800E+02    4.78767500E-01 
   8.11581800E+01    3.53073900E-01 
SP   6    1.000000
   1.61081400E+03    2.36405500E-03   3.96330700E-03 
   3.83636700E+02    3.15363500E-02   3.11022300E-02 
   1.24173300E+02    1.26945200E-01   1.36135000E-01 
   4.67467800E+01   -2.26284000E-02   3.49291400E-01 
   1.90656900E+01   -6.19208000E-01   4.62478000E-01 
   7.87156700E+00   -4.58539300E-01   2.02010200E-01 
SP   6    1.000000
   6.44573200E+01   -4.33107500E-03  -7.52372500E-03 
   2.18521200E+01    7.41230700E-02  -2.97568700E-02 
   9.40534300E+00    2.54210800E-01   6.84965400E-02 
   3.99916800E+00   -2.87484300E-01   4.02714100E-01 
   1.67029700E+00   -7.29143600E-01   4.90849000E-01 
   6.59627000E-01   -2.11395100E-01   1.75926800E-01 
SP   3    1.000000
   2.60008800E+00    5.02757700E-02  -1.70291100E-01 
   9.63094000E-01    2.65004000E-01   9.31013300E-02 
   1.36161000E-01   -1.12015500E+00   9.81433600E-01 
SP   1    1.000000
   4.73320000E-02    1.00000000E+00   1.00000000E+00 
D    3    1.000000
   3.08534100E+01    9.19990500E-02 
   8.26498500E+00    3.98502100E-01 
   2.49533200E+00    6.91789700E-01 
D    1    1.000000
   6.67658000E-01    1.00000000E+00 
F    1    1.000000
   8.00000000E-01    1.00000000E+00 

2    0
S    6    1.000000
   7.67943800E+04    1.74816100E-03 
   1.15307000E+04    1.33960200E-02 
   2.62657500E+03    6.61088500E-02 
   7.40490300E+02    2.29826500E-01 
   2.37352800E+02    4.78767500E-01 
   8.11581800E+01    3.53073900E-01 
SP   6    1.000000
   1.61081400E+03    2.36405500E-03   3.96330700E-03 
   3.83636700E+02    3.15363500E-02   3.11022300E-02 
   1.24173300E+02    1.26945200E-01   1.36135000E-01 
   4.67467800E+01   -2.26284000E-02   3.49291400E-01 
   1.90656900E+01   -6.19208000E-01   4.62478000E-01 
   7.87156700E+00   -4.58539300E-01   2.02010200E-01 
SP   6    1.000000
   6.44573200E+01   -4.33107500E-03  -7.52372500E-03 
   2.18521200E+01    7.41230700E-02  -2.97568700E-02 
   9.40534300E+00    2.54210800E-01   6.84965400E-02 
   3.99916800E+00   -2.87484300E-01   4.02714100E-01 
   1.67029700E+00   -7.29143600E-01   4.90849000E-01 
   6.59627000E-01   -2.11395100E-01   1.75926800E-01 
SP   3    1.000000
   2.60008800E+00    5.02757700E-02  -1.70291100E-01 
   9.63094000E-01    2.65004000E-01   9.31013300E-02 
   1.36161000E-01   -1.12015500E+00   9.81433600E-01 
SP   1    1.000000
   4.73320000E-02    1.00000000E+00   1.00000000E+00 
D    3    1.000000
   3.08534100E+01    9.19990500E-02 
   8.26498500E+00    3.98502100E-01 
   2.49533200E+00    6.91789700E-01 
D    1    1.000000
   6.67658000E-01    1.00000000E+00 
F    1    1.000000
   8.00000000E-01    1.00000000E+00 

[MO]
Sym=X
Ene= -328.628256
Spin=Alpha
Occup=1
     1    7.045272341308e-01
     2   -7.930101483485e-03
     3    1.346188160105e-16
     4    1.929943638026e-16
     5   -1.028954141501e-05
     6    2.075859654509e-02
     7   -9.798854671098e-17
     8   -8.092306873294e-17
     9   -1.612797476742e-06
    10    1.435525016751e-03
    11    3.704576393580e-17
    12    1.339417031734e-15
    13   -1.772340155027e-04
    14    1.500729596467e-03
    15    1.393417282529e-17
    16    2.351451431227e-16
    17    5.756316530789e-04
    18    8.253962108505e-03
    19    8.253962108504e-03
    20    8.269525657274e-03
    21   -1.236442069542e-16
    22    1.717357545413e-16
    23    3.766239462285e-17
    24    1.438633123333e-03
    25    1.438633123332e-03
    26    1.381697704118e-03
    27    4.104747558778e-17
    28   -1.344016332638e-16
    29   -4.762787414904e-16
    30   -1.400834235802e-05
    31    4.073225764067e-17
    32   -6.640324536769e-16
    33   -2.461892667945e-16
    34    1.551014563171e-16
    35   -1.273163632762e-19
    36    1.601332349251e-16
    37   -7.045263441259e-01
    38    7.930091457574e-03
    39    2.920628107483e-16
    40    4.380948000612e-16
    41   -1.028953465798e-05
    42   -2.075857039131e-02
    43   -2.609374509325e-16
    44   -1.845511581110e-16
    45   -1.612807830825e-06
    46   -1.435523719565e-03
    47    4.917812642676e-17
    48   -4.315148222019e-16
    49   -1.772340379309e-04
    50   -1.500729131934e-03
    51    1.390874295031e-16
    52   -1.012614879283e-15
    53    5.756316246660e-04
    54   -8.253951666421e-03
    55   -8.253951666423e-03
    56   -8.269515226081e-03
    57    2.197299657951e-16
    58    2.216650121492e-16
    59    3.069118608720e-16
    60   -1.438631403862e-03
    61   -1.438631403862e-03
    62   -1.381695940500e-03
    63   -9.721857427168e-17
    64   -1.399693296204e-16
    65    7.554314588974e-16
    66   -1.400834493446e-05
    67   -6.547742487488e-17
    68    3.516872997829e-16
    69   -2.568980349973e-16
    70    9.595100761472e-17
    71   -3.346219478856e-19
    72    1.196759422974e-17
Sym=X
Ene= -328.628247
Spin=Alpha
Occup=1
     1   -7.045288669861e-01
     2    7.936532076968e-03
     3   -7.309224790841e-17
     4    4.970561757689e-16
     5    5.348317929348e-06
     6   -2.070325441427e-02
     7   -7.709697236529e-17
     8   -1.263183810429e-16
     9   -8.196540861365e-06
    10   -1.026852980077e-03
    11    3.154422101747e-16
    12   -5.173706304736e-17
    13   -1.775481385651e-05
    14   -3.677244549210e-04
    15   -3.144376363366e-16
    16    5.295099949897e-17
    17   -2.249040314243e-05
    18   -8.265917477628e-03
    19   -8.265917477628e-03
    20   -8.257297513208e-03
    21    1.788611958454e-16
    22   -2.857906675256e-16
    23    1.941859573358e-16
    24   -1.361130267562e-03
    25   -1.361130267563e-03
    26   -1.396078866767e-03
    27    2.722067961144e-17
    28    2.780879966451e-16
    29   -4.223261729502e-16
    30   -2.039518182799e-06
    31    3.742817283311e-17
    32   -8.199902387648e-17
    33   -2.258749877289e-16
    34    5.597107406876e-17
    35    1.330017901980e-19
    36   -1.723180198156e-18
    37   -7.045297569878e-01
    38    7.936542094767e-03
    39   -2.141784051462e-16
    40   -6.036389588688e-16
    41   -5.348330927447e-06
    42   -2.070328063769e-02
    43    2.463323507706e-16
    44   -3.378143118993e-16
    45    8.196538823430e-06
    46   -1.026854793521e-03
    47   -2.591858323731e-16
    48    1.394707222398e-15
    49    1.775458996311e-05
    50   -3.677263507399e-04
    51    3.309052241129e-16
    52   -7.607257478251e-16
    53    2.249113031942e-05
    54   -8.265927904488e-03
    55   -8.265927904488e-03
    56   -8.257307959730e-03
    57    1.689644782718e-16
    58   -2.391990251458e-16
    59    5.597423795255e-16
    60   -1.361132084927e-03
    61   -1.361132084928e-03
    62   -1.396080612209e-03
    63    4.427293271934e-16
    64    2.461893788109e-16
    65    2.986303010063e-16
    66    2.039500486531e-06
    67   -6.624490938524e-17
    68    1.045818204235e-16
    69   -2.478667313052e-16
    70   -8.309469283830e-17
    71    1.055411823107e-19
    72   -9.140568669067e-17
Sym=X
Ene= -40.682455
Spin=Alpha
Occup=1
     1    2.174836778425e-01
     2    7.333883822665e-01
     3    1.650212515850e-15
     4   -1.439593119477e-15
     5    7.364647802778e-04
     6    1.205082398387e-02
     7    1.927611586662e-16
     8   -4.000494649266e-16
     9    3.576366906426e-05
    10    1.495604153196e-03
    11    6.259212389290e-16
    12   -1.051032185507e-16
    13   -1.989941023223e-04
    14    1.464966944331e-03
    15   -6.781885434425e-16
    16    5.316098107828e-16
    17    5.533706746958e-04
    18    5.157500696053e-04
    19    5.157500695830e-04
    20    5.232073264483e-04
    21    1.432945538636e-16
    22   -6.765793165862e-16
    23   -5.215416753036e-16
    24    1.202418683709e-03
    25    1.202418683715e-03
    26    1.143617826098e-03
    27   -1.774400826974e-16
    28    5.350546407781e-16
    29   -5.416144410959e-16
    30   -1.601873986197e-05
    31    2.834979874416e-17
    32   -3.198979532802e-16
    33   -1.407824970789e-16
    34    1.297281605777e-16
    35    8.860680518508e-19
    36    6.331244677626e-17
    37   -2.174823022021e-01
    38   -7.333837434885e-01
    39   -3.311490438477e-15
    40    1.090010584139e-15
    41    7.364600877839e-04
    42   -1.205074805486e-02
    43    6.868060391485e-16
    44    3.973146233717e-16
    45    3.576337076431e-05
    46   -1.495597324740e-03
    47   -6.532019262413e-16
    48    5.774089418167e-16
    49   -1.989941965552e-04
    50   -1.464964555796e-03
    51    9.950796345043e-16
    52   -7.577394923268e-16
    53    5.533705293006e-04
    54   -5.157467075256e-04
    55   -5.157467075005e-04
    56   -5.232040787677e-04
    57   -2.896554510652e-17
    58   -3.157446965055e-16
    59   -3.006101609117e-16
    60   -1.202411597596e-03
    61   -1.202411597602e-03
    62   -1.143610449029e-03
    63    1.832689081149e-17
    64    2.606699414161e-16
    65    5.475440448620e-16
    66   -1.601876174186e-05
    67   -1.647196066063e-16
    68   -1.978268429761e-17
    69   -1.620438271441e-17
    70   -7.146892756108e-17
    71    1.373757329427e-18
    72   -7.749028918848e-18
Sym=X
Ene= -40.682453
Spin=Alpha
Occup=1
     1    2.174848309283e-01
     2    7.333776008860e-01
     3   -1.983816499773e-15
     4    2.158086245699e-15
     5    7.418695945750e-04
     6    1.200416793050e-02
     7   -3.584735440528e-16
     8    1.797570745740e-16
     9    4.716034689262e-05
    10    1.079558278150e-03
    11    2.533160186934e-16
    12    8.660585305851e-16
    13    1.489921486123e-05
    14    3.776174382519e-04
    15   -7.823954608574e-16
    16   -7.331478340328e-16
    17    2.298390406453e-05
    18    5.315379221665e-04
    19    5.315379221444e-04
    20    5.134514000919e-04
    21    5.139023302950e-17
    22    8.426485653468e-16
    23   -9.325260236927e-17
    24    1.120294487083e-03
    25    1.120294487090e-03
    26    1.166294279802e-03
    27    6.543790876732e-17
    28   -5.282161512056e-16
    29   -1.292782372962e-17
    30    3.459140712334e-06
    31   -4.531128566903e-17
    32    4.779256824476e-17
    33   -1.842902135969e-16
    34   -9.560349045823e-17
    35   -9.117588877306e-19
    36    5.028009522405e-17
    37    2.174862065527e-01
    38    7.333822397029e-01
    39    3.842369627527e-15
    40   -5.458281032414e-15
    41   -7.418742528485e-04
    42    1.200424415423e-02
    43   -9.056812472932e-16
    44   -2.574070176759e-16
    45   -4.716057310399e-05
    46    1.079567738143e-03
    47   -1.921777474904e-16
    48    7.144686189152e-16
    49   -1.489795617780e-05
    50    3.776267045052e-04
    51    4.597572940828e-16
    52    1.041791051916e-15
    53   -2.298740427535e-05
    54    5.315411843927e-04
    55    5.315411843678e-04
    56    5.134547094877e-04
    57   -2.863564551326e-16
    58    7.994758159204e-16
    59    1.090820164044e-16
    60    1.120302092610e-03
    61    1.120302092615e-03
    62    1.166301513400e-03
    63   -1.635593179948e-16
    64   -6.798294486862e-16
    65    4.214763935500e-16
    66   -3.459039390649e-06
    67   -2.777149561929e-16
    68   -1.494354252531e-16
    69   -1.705110361068e-16
    70    1.013560139103e-16
    71   -1.421350939012e-18
    72   -1.609086328169e-16
Sym=X
Ene= -35.483852
Spin=Alpha
Occup=1
     1    2.368388419866e-04
     2    7.951230737068e-04
     3   -2.357195410703e-13
     4   -1.277628865765e-11
     5   -7.047526382824e-01
     6   -2.141977134140e-06
     7   -2.189659123908e-15
     8   -1.190241905913e-13
     9   -6.555910524601e-03
    10   -6.591909906883e-04
    11    9.030484984997e-17
    12    1.568851259911e-14
    13    1.279941899524e-03
    14   -1.134282399434e-03
    15    7.260065887250e-17
    16   -9.697640250017e-15
    17   -9.867375042023e-04
    18    2.710732280226e-05
    19    2.710732280448e-05
    20    8.819789816978e-05
    21   -3.227181358584e-16
    22   -5.284258628462e-17
    23    1.696673974027e-15
    24   -1.444099246272e-04
    25   -1.444099246279e-04
    26    2.195292699563e-06
    27    5.778451338851e-16
    28   -2.733578884450e-17
    29   -1.075033238703e-15
    30    4.339044293545e-05
    31   -2.107089274913e-17
    32   -1.598166567615e-16
    33   -2.039524576454e-17
    34   -6.017785205385e-17
    35   -3.246470591936e-19
    36    6.513596093327e-16
    37   -2.368384586742e-04
    38   -7.951217537967e-04
    39   -1.439515904920e-12
    40    2.022756553689e-12
    41   -7.047514762566e-01
    42    2.141999888126e-06
    43   -1.331513937463e-14
    44    1.835549562670e-14
    45   -6.555899680112e-03
    46    6.591910643826e-04
    47    1.685135919433e-15
    48   -4.021492434371e-15
    49    1.279940670819e-03
    50    1.134282562232e-03
    51   -1.013740787119e-15
    52    4.549286220260e-15
    53   -9.867367859933e-04
    54   -2.710737587050e-05
    55   -2.710737587387e-05
    56   -8.819773454261e-05
    57    6.518219551082e-16
    58   -3.153889892973e-16
    59    5.308143559943e-18
    60    1.444099697809e-04
    61    1.444099697818e-04
    62   -2.195425734550e-06
    63    2.090688291574e-18
    64    1.535834161448e-16
    65   -8.708633619900e-17
    66    4.339045434287e-05
    67   -2.068124348453e-17
    68    6.327078486491e-16
    69   -4.038750931634e-18
    70   -3.178666214888e-16
    71    8.887960598246e-19
    72    5.364020495527e-16
Sym=X
Ene= -35.483847
Spin=Alpha
Occup=1
     1    2.324694546857e-04
     2    8.004628923997e-04
     3   -9.630015051392e-14
     4   -3.775611623516e-11
     5   -7.047669926575e-01
     6    1.322226826059e-05
     7   -8.876417028211e-16
     8   -3.522956673505e-13
     9   -6.577181501750e-03
    10    4.481040539072e-05
    11    3.481851518294e-16
    12    4.337125324233e-14
    13    7.452657941330e-04
    14    9.882987636502e-05
    15   -3.432892411239e-16
    16   -2.242367388010e-14
    17   -4.356404436882e-04
    18   -3.245222293452e-05
    19   -3.245222293224e-05
    20    9.896363675294e-05
    21    3.048685875479e-16
    22    1.079887875522e-16
    23    4.190896224449e-15
    24    2.738325786185e-05
    25    2.738325786092e-05
    26   -8.068635727173e-05
    27    2.223129959286e-16
    28   -1.529371417839e-16
    29   -8.935556531173e-16
    30   -6.916944426355e-06
    31   -6.138536011599e-17
    32   -2.535087992634e-16
    33   -1.191832589276e-16
    34   -6.842715454619e-17
    35   -3.635097107720e-19
    36   -4.730268195839e-16
    37    2.324698451805e-04
    38    8.004642032878e-04
    39    7.812679862494e-13
    40   -1.093542516214e-11
    41    7.047681546577e-01
    42    1.322226353724e-05
    43    7.249035520258e-15
    44   -1.019999012099e-13
    45    6.577192311177e-03
    46    4.480931762582e-05
    47   -9.038701436906e-16
    48    9.888713450503e-15
    49   -7.452679045052e-04
    50    9.882800344731e-05
    51    5.033658418855e-16
    52   -1.754848015733e-15
    53    4.356420719445e-04
    54   -3.245217869590e-05
    55   -3.245217869246e-05
    56    9.896378170921e-05
    57    1.114422062084e-17
    58    1.920176635640e-16
    59   -2.613203751050e-15
    60    2.738301961006e-05
    61    2.738301960884e-05
    62   -8.068635382216e-05
    63    4.181389148306e-17
    64   -1.576323332684e-16
    65    1.940878189279e-15
    66    6.916872874067e-06
    67   -5.445815830229e-17
    68   -4.437334380195e-16
    69   -1.709348043455e-16
    70   -4.987358926803e-17
    71   -9.119005003516e-19
    72    1.444121934096e-16
Sym=X
Ene= -35.483068
Spin=Alpha
Occup=1
     1    6.745568752061e-15
     2    2.473848559540e-14
     3    1.498772232456e-07
     4    7.047628072284e-01
     5   -2.080933376322e-11
     6    3.558615546644e-14
     7    1.398377159046e-09
     8    6.575313138016e-03
     9   -1.939935521572e-13
    10   -4.639493656870e-15
    11   -1.933576212759e-10
    12   -9.045917899483e-04
    13    2.805700398211e-14
    14   -9.341636909430e-15
    15    1.257188887071e-10
    16    5.830540840875e-04
    17   -1.871700812711e-14
    18    1.551834571645e-14
    19    1.552881857570e-14
    20    1.819475085718e-14
    21    3.489619569528e-17
    22   -1.205342556255e-11
    23   -5.708141356421e-05
    24    1.476575025442e-15
    25    1.020228511109e-15
    26    3.976203232389e-16
    27    3.481932407409e-17
    28   -1.152761377246e-12
    29   -4.048489473849e-06
    30   -1.547598628291e-17
    31   -2.943747026298e-12
    32   -1.280368960958e-05
    33   -2.963831853729e-16
    34    2.076009963393e-18
    35   -1.207983805274e-17
    36    5.740973606386e-12
    37    5.912520701085e-16
    38    2.051804058188e-15
    39   -1.603670823380e-07
    40   -7.047599258792e-01
    41    6.011253381615e-12
    42   -2.669581492546e-15
    43   -1.496146983613e-09
    44   -6.575286282316e-03
    45    5.577979846274e-14
    46    7.363478039692e-15
    47    2.048533499503e-10
    48    9.045886323382e-04
    49   -4.034637043825e-16
    50    1.305920490776e-14
    51   -1.309484045605e-10
    52   -5.830526477142e-04
    53   -1.732601032877e-15
    54   -2.128289640387e-15
    55   -2.149784276963e-15
    56    4.098584296532e-16
    57   -3.342405841245e-16
    58   -1.307637919282e-11
    59   -5.708113252363e-05
    60    2.613083773641e-15
    61    1.098958611599e-15
    62   -1.894590947000e-15
    63    8.487011011517e-17
    64   -6.274791666025e-13
    65   -4.048633785212e-06
    66    4.953835935715e-16
    67    2.692716374427e-12
    68    1.280375862019e-05
    69    4.014553845489e-16
    70   -1.404224056211e-16
    71   -7.786028616963e-20
    72   -5.741137825691e-12
Sym=X
Ene= -35.483068
Spin=Alpha
Occup=1
     1   -1.766283603693e-16
     2   -5.514270210407e-16
     3   -7.047628124630e-01
     4    1.557193795521e-07
     5   -1.631330379876e-13
     6   -4.890535836028e-15
     7   -6.575313186808e-03
     8    1.452828674090e-09
     9   -1.463615183813e-15
    10   -3.996590699995e-16
    11    9.045917956853e-04
    12   -1.997599860813e-10
    13    2.102060165751e-16
    14   -1.393541120406e-15
    15   -5.830540866960e-04
    16    1.286307970059e-10
    17   -5.926429737439e-16
    18   -2.069294225882e-15
    19   -2.143790919747e-15
    20   -2.173187863755e-15
    21   -3.306675150733e-17
    22    5.708141407666e-05
    23   -1.262247118188e-11
    24   -2.656362047117e-16
    25   -2.275679540781e-16
    26   -9.632524326906e-17
    27   -1.182922853087e-17
    28    4.048489212204e-06
    29   -8.613046218837e-13
    30    8.638385351959e-18
    31    1.280368948487e-05
    32   -2.803814377501e-12
    33   -3.785697789925e-17
    34    1.371176315877e-17
    35    5.741275300523e-12
    36   -2.024756323924e-16
    37   -1.817694376142e-15
    38   -6.525437217954e-15
    39    7.047599206446e-01
    40   -1.545249014898e-07
    41   -1.040593853905e-12
    42   -7.140618701351e-15
    43    6.575286233529e-03
    44   -1.441695543332e-09
    45   -9.696120314998e-15
    46   -2.068654752004e-16
    47   -9.045886266038e-04
    48    1.984512053224e-10
    49    1.334289430410e-15
    50    9.670838498248e-16
    51    5.830526451049e-04
    52   -1.280355034580e-10
    53   -1.327453055772e-15
    54   -2.625760863623e-15
    55   -2.836248992867e-15
    56   -3.326751484443e-15
    57    3.107469492925e-17
    58    5.708113201388e-05
    59   -1.250590923253e-11
    60   -9.597313082297e-16
    61   -5.802192671936e-16
    62   -3.731069561770e-17
    63    2.401364983588e-16
    64    4.048634047374e-06
    65   -9.217133604887e-13
    66    1.393406504337e-16
    67   -1.280375874573e-05
    68    2.832271509182e-12
    69   -8.779813385638e-18
    70   -1.658072391402e-16
    71   -5.741268431381e-12
    72   -1.973240068603e-16
Sym=X
Ene= -35.483066
Spin=Alpha
Occup=1
     1   -8.508210352926e-15
     2   -2.122831750808e-14
     3   -1.643257020419e-07
     4   -7.047672716699e-01
     5    2.972198567981e-11
     6    1.431807671771e-13
     7   -1.531608828933e-09
     8   -6.568807224966e-03
     9    2.769052043547e-13
    10    4.854088692073e-15
    11    1.801932178330e-10
    12    7.723400513954e-04
    13   -3.502695056927e-14
    14    3.738749554009e-15
    15   -8.211381642034e-11
    16   -3.513314210095e-04
    17    2.120336500185e-14
    18    6.544229521662e-14
    19    6.611008128745e-14
    20    5.946204232855e-14
    21   -4.511372963436e-16
    22    1.601817488666e-11
    23    6.874165544489e-05
    24    6.170417709625e-15
    25    6.176083478087e-15
    26    9.125534935150e-15
    27   -2.444532091616e-16
    28   -8.196913212859e-12
    29   -3.529799013445e-05
    30   -2.497164503352e-16
    31   -3.910583729834e-12
    32   -1.687967286712e-05
    33   -2.649411694730e-17
    34   -1.029998788955e-17
    35   -8.236263290690e-17
    36   -5.716795136965e-12
    37   -6.650087271254e-15
    38   -2.306064761614e-14
    39   -1.631325424525e-07
    40   -7.047701529891e-01
    41   -1.896871945683e-11
    42   -2.671279803674e-15
    43   -1.520476841971e-09
    44   -6.568834107184e-03
    45   -1.771651615480e-13
    46   -5.794306999425e-15
    47    1.786617010730e-10
    48    7.723437496916e-04
    49    1.586642618865e-14
    50   -9.865269841471e-15
    51   -8.112662468480e-11
    52   -3.513338047444e-04
    53   -8.477356536045e-15
    54    1.529309359760e-16
    55    5.063985238482e-16
    56   -3.452669141169e-15
    57    5.633531609269e-16
    58   -1.592150353521e-11
    59   -6.874188881448e-05
    60   -2.333447204477e-15
    61   -2.328876904576e-15
    62    3.267779662720e-15
    63   -4.177318841993e-16
    64    8.203720402742e-12
    65    3.529797358274e-05
    66   -5.267615036407e-16
    67   -3.932266045592e-12
    68   -1.687962052046e-05
    69    1.106067368660e-16
    70    6.013428261739e-17
    71   -5.247935932902e-19
    72   -5.717241365382e-12
Sym=X
Ene= -35.483066
Spin=Alpha
Occup=1
     1    9.797258360145e-17
     2    7.488254063758e-17
     3    7.047672664354e-01
     4   -1.584835828527e-07
     5   -4.951237525317e-13
     6   -3.829610086578e-15
     7    6.568807176134e-03
     8   -1.477103289885e-09
     9   -4.502568328498e-15
    10   -1.717138572181e-16
    11   -7.723400446793e-04
    12    1.726949099539e-10
    13    7.516076047403e-16
    14   -1.321044455537e-16
    15    3.513314166792e-04
    16   -7.728123987176e-11
    17   -1.493269344262e-17
    18   -1.355729782365e-15
    19   -1.541823700704e-15
    20   -2.159972826722e-15
    21   -2.165063916139e-16
    22   -6.874165502268e-05
    23    1.554471208215e-11
    24   -4.363677620320e-16
    25   -4.659413494061e-16
    26    3.719589209844e-16
    27   -1.309264065549e-17
    28    3.529799016538e-05
    29   -8.230840353741e-12
    30   -1.511866337843e-17
    31    1.687967296230e-05
    32   -4.016522517038e-12
    33   -8.983835486039e-17
    34    7.876556878070e-17
    35   -5.716812459094e-12
    36   -3.174580971131e-16
    37   -8.564334470888e-16
    38   -2.854010825485e-15
    39    7.047701582236e-01
    40   -1.689746377017e-07
    41   -1.180084229868e-12
    42   -5.814789038132e-15
    43    6.568834156023e-03
    44   -1.574982231767e-09
    45   -1.096955205031e-14
    46    1.278968533890e-15
    47   -7.723437564131e-04
    48    1.861603275033e-10
    49    1.648153846684e-15
    50    4.845897141959e-16
    51    3.513338090756e-04
    52   -8.595945537401e-11
    53   -7.476499466957e-16
    54   -2.181876644450e-15
    55   -2.484815323717e-15
    56   -3.048257765232e-15
    57    1.601827176590e-16
    58    6.874188923980e-05
    59   -1.639524050503e-11
    60    6.417590320305e-16
    61   -2.887217067806e-16
    62    4.559443990647e-16
    63    2.847943560596e-16
    64   -3.529797355478e-05
    65    8.170121403894e-12
    66    1.981388318833e-16
    67    1.687962042548e-05
    68   -3.826049191791e-12
    69    5.364899997094e-18
    70    2.127566589554e-16
    71   -5.716851256161e-12
    72    7.634796931330e-17
Sym=X
Ene= -4.889509
Spin=Alpha
Occup=1
     1   -8.134064847915e-02
     2   -3.193681227329e-01
     3   -5.378643043514e-16
     4   -1.020927502929e-16
     5   -1.492841616190e-03
     6    7.566676146492e-01
     7    1.281419836425e-15
     8    8.334923753820e-17
     9    4.160508520280e-03
    10   -4.654803130864e-03
    11    5.094359182678e-16
    12   -4.131918075139e-16
    13    1.296705983273e-04
    14   -2.025775392589e-03
    15   -1.585109476023e-16
    16    1.859110317361e-15
    17   -2.973982413950e-04
    18   -2.339414564666e-03
    19   -2.339414564680e-03
    20   -3.489823820647e-03
    21    1.525974618057e-17
    22   -4.957520472544e-16
    23    3.029341172382e-17
    24   -4.340363709680e-03
    25   -4.340363710005e-03
    26   -4.832697743420e-03
    27   -2.295369244120e-16
    28   -3.332456789129e-16
    29    1.328135653563e-16
    30   -9.648631849277e-05
    31   -4.849940001183e-17
    32    6.265928797894e-17
    33   -2.427896518421e-15
    34   -1.421800178211e-16
    35   -6.713633588481e-18
    36    7.938630718421e-17
    37   -8.134064549071e-02
    38   -3.193681109954e-01
    39   -9.113246398464e-16
    40   -3.191977174866e-16
    41    1.492841561631e-03
    42    7.566675868546e-01
    43    2.773099362952e-15
    44    9.454437164508e-16
    45   -4.160508361817e-03
    46   -4.654802853441e-03
    47   -4.934963554492e-16
    48    3.492722609515e-16
    49   -1.296705371792e-04
    50   -2.025775037635e-03
    51   -7.649032446824e-17
    52   -4.160815019527e-16
    53    2.973980913503e-04
    54   -2.339414481291e-03
    55   -2.339414481338e-03
    56   -3.489823692675e-03
    57   -1.664278974198e-16
    58   -6.431027142336e-16
    59   -3.020866144894e-16
    60   -4.340363529751e-03
    61   -4.340363530074e-03
    62   -4.832697572388e-03
    63    2.626249065987e-16
    64    3.714562060287e-16
    65   -3.797500394746e-16
    66    9.648632226802e-05
    67    3.046006688490e-16
    68    3.504275037292e-16
    69    2.483557986573e-15
    70   -6.236496852521e-17
    71    3.562184428421e-18
    72    2.689814926952e-16
Sym=X
Ene= -4.889386
Spin=Alpha
Occup=1
     1   -8.133198370073e-02
     2   -3.194434313502e-01
     3    7.581040202421e-16
     4   -1.424048316538e-16
     5   -1.484492282473e-03
     6    7.564321557519e-01
     7   -1.767201890487e-15
     8    1.865276925636e-16
     9    4.311715269813e-03
    10   -7.556126680778e-03
    11    9.111329819211e-16
    12    1.130232450923e-16
    13    1.665245925038e-03
    14   -9.672696501024e-03
    15   -1.952803982676e-15
    16    3.226678235019e-16
    17   -4.089987656976e-03
    18   -2.272876888798e-03
    19   -2.272876888815e-03
    20   -3.487736102644e-03
    21    1.646290794317e-17
    22    2.283279877157e-16
    23    5.382066606789e-16
    24   -4.899888701397e-03
    25   -4.899888701721e-03
    26   -4.657774498745e-03
    27   -3.192533193327e-16
    28    4.929440810700e-16
    29    4.449243101705e-16
    30    1.028138526120e-04
    31    1.343590683585e-16
    32    3.275180406091e-17
    33   -2.920667521695e-15
    34   -5.179859527920e-17
    35   -4.900761879564e-18
    36   -3.700188995284e-17
    37    8.133198668949e-02
    38    3.194434430850e-01
    39    5.908981589360e-16
    40    5.019164719926e-16
    41   -1.484492337315e-03
    42   -7.564321835543e-01
    43   -1.969376310195e-15
    44   -9.852248995570e-16
    45    4.311715422655e-03
    46    7.556126851907e-03
    47   -9.107495394573e-16
    48    5.987606940743e-16
    49    1.665245929796e-03
    50    9.672696575499e-03
    51    2.318617226562e-15
    52   -5.104994959683e-16
    53   -4.089987667894e-03
    54    2.272876974883e-03
    55    2.272876974933e-03
    56    3.487736231041e-03
    57   -5.810435322629e-16
    58    5.086257877547e-16
    59    4.754961429392e-17
    60    4.899888860971e-03
    61    4.899888861293e-03
    62    4.657774676419e-03
    63   -6.930312660167e-17
    64   -2.927199801733e-16
    65   -7.080521545788e-16
    66    1.028138490665e-04
    67   -1.981237119983e-16
    68    5.174580605130e-16
    69   -2.838099798594e-15
    70   -9.608576422677e-17
    71   -3.220794375617e-18
    72   -6.495229126242e-18
Sym=X
Ene= -3.210263
Spin=Alpha
Occup=1
     1    4.654545888409e-04
     2    1.821033880079e-03
     3    2.762020130773e-15
     4    1.964573788999e-13
     5   -2.671948434949e-01
     6   -4.991639851405e-03
     7   -7.778414284430e-15
     8   -5.534813523429e-13
     9    7.520355631872e-01
    10   -5.600686462045e-04
    11   -1.216682670243e-16
    12   -1.001176369474e-14
    13    1.137153498516e-02
    14    8.585578661445e-04
    15   -7.500784642501e-16
    16    6.375349810894e-15
    17   -5.211014244589e-03
    18    5.204954725961e-04
    19    5.204954727392e-04
    20   -1.593028335436e-03
    21    3.339919346217e-16
    22   -2.432798157162e-16
    23    1.540736352637e-15
    24   -9.510798666052e-05
    25   -9.510798663743e-05
    26   -1.868994091499e-03
    27    2.691164934194e-16
    28   -2.820330143247e-16
    29    3.471011336445e-17
    30    2.242000703597e-04
    31   -1.459830898876e-17
    32   -1.743641967216e-16
    33   -1.738905029802e-13
    34   -8.609317250792e-18
    35   -2.777246415193e-16
    36   -8.449270813701e-17
    37    4.654545871081e-04
    38    1.821033873722e-03
    39    3.573869913771e-14
    40   -3.793055530992e-13
    41    2.671948426996e-01
    42   -4.991639832982e-03
    43   -1.006593115790e-13
    44    1.068095302738e-12
    45   -7.520355609471e-01
    46   -5.600686351519e-04
    47   -1.807295691569e-15