[Molden Format] 
[Atoms] Angs                                                                    
   O     1    8             0.0000000000        0.0000000000        0.0000000000
   H     2    1             0.9686300000        0.0000000000        0.0000000000
   H     3    1            -0.2344057191        0.9398393670        0.0000000000
[STO]                                                                           
    1    0    0    0    1             1.5521451600        0.9776767193          
    1    1    0    0    0             1.5521451600        1.6933857512          
    1    0    1    0    0             1.5521451600        1.6933857512          
    1    0    0    1    0             1.5521451600        1.6933857512          
    2    0    0    0    0             1.4738648100        1.0095121222          
    3    0    0    0    0             1.4738648100        1.0095121222          
[MO]                                                                            
 Sym= A'                                                                        
 Ene=       -16.7800017103                                                      
 Occup =   1.0                                                                  
    1            -0.0000000000                                                  
    2            -0.6282552553                                                  
    3             0.4908075563                                                  
    4             0.0000000000                                                  
    5            -0.4268508387                                                  
    6             0.4268508387                                                  
